meta.canterbury.ac.nz 132.181.233
Q-Chem Developer Version! Running on 132.181.233.*
                  Welcome to Q-Chem
     A Quantum Leap Into The Future Of Chemistry


 Q-Chem 5.0, Q-Chem, Inc., Pleasanton, CA (2017)

 Yihan Shao,  Zhengting Gan,  E. Epifanovsky,  A. T. B. Gilbert,  M. Wormit,  
 J. Kussmann,  A. W. Lange,  A. Behn,  Jia Deng,  Xintian Feng,  D. Ghosh,  
 M. Goldey,  P. R. Horn,  L. D. Jacobson,  I. Kaliman,  T. Kus,  A. Landau,  
 Jie Liu,  E. I. Proynov,  R. M. Richard,  R. P. Steele,  E. J. Sundstrom,  
 H. L. Woodcock III,  P. M. Zimmerman,  D. Zuev,  B. Albrecht,  E. Alguire,  
 S. A. Baeppler,  Z. Benda,  Y. A. Bernard,  E. J. Berquist,  K. B. Bravaya,  
 D. Casanova,  Chun-Min Chang,  Yunqing Chen,  A. Chien,  K. D. Closser,  
 M. P. Coons,  S. Dasgupta,  M. Diedenhofen,  Hainam Do,  R. G. Edgar,  
 Po-Tung Fang,  S. Fatehi,  Qingguo Feng,  Qinghui Ge,  A. Ghysels,  
 J. Gomes,  J. Gonthier,  A. Gunina,  M. W. D. Hanson-Heine,  
 P. H. P. Harbach,  A. W. Hauser,  J. E. Herr,  E. G. Hohenstein,  
 Z. C. Holden,  Kerwin Hui,  T.-C. Jagau,  Hyunjun Ji,  B. Kaduk,  
 K. Khistyaev,  Jaehoon Kim,  P. Klunzinger,  K. Koh,  D. Kosenkov,  
 T. Kowalczyk,  C. M. Krauter,  A. Kunitsa,  Ka Un Lao,  A. Laurent,  
 K. V. Lawler,  Joonho Lee,  D. Lefrancois,  S. Lehtola,  D. S. Levine,  
 Yi-Pei Li,  You-Sheng Lin,  Fenglai Liu,  E. Livshits,  A. Luenser,  
 P. Manohar,  E. Mansoor,  S. F. Manzer,  Shan-Ping Mao,  Yuezhi Mao,  
 N. Mardirossian,  A. V. Marenich,  L. A. Martinez-Martinez,  S. A. Maurer,  
 N. J. Mayhall,  S. C. McKenzie,  J.-M. Mewes,  A. F. Morrison,  K. Nanda,  
 T. S. Nguyen-Beck,  R. Olivares-Amaya,  J. A. Parkhill,  T. M. Perrine,  
 F. Plasser,  S. Prager,  A. Prociuk,  D. R. Rehn,  F. Rob,  M. Schneider,  
 N. Sergueev,  S. M. Sharada,  S. Sharma,  D. W. Small,  T. Stauch,  
 T. Stein,  Yu-Chuan Su,  A. J. W. Thom,  T. Tsuchimochi,  L. Vogt,  
 O. Vydrov,  M. A. Watson,  J. Wenzel,  M. de Wergifosse,  T. A. Wesolowski,  
 A. White,  J. Witte,  A. Yamada,  Jun Yang,  K. Yao,  S. Yeganeh,  
 S. R. Yost,  Zhi-Qiang You,  A. Zech,  Igor Ying Zhang,  Xing Zhang,  
 Yan Zhao,  Ying Zhu,  B. R. Brooks,  G. K. L. Chan,  C. J. Cramer,  
 M. S. Gordon,  W. J. Hehre,  A. Klamt,  M. W. Schmidt,  C. D. Sherrill,  
 D. G. Truhlar,  A. Aspuru-Guzik,  R. Baer,  A. T. Bell,  N. A. Besley,  
 Jeng-Da Chai,  A. Dreuw,  B. D. Dunietz,  T. R. Furlani,  Chao-Ping Hsu,  
 Yousung Jung,  Jing Kong,  D. S. Lambrecht,  WanZhen Liang,  C. Ochsenfeld,  
 V. A. Rassolov,  L. V. Slipchenko,  J. E. Subotnik,  T. Van Voorhis,  
 J. M. Herbert,  A. I. Krylov,  P. M. W. Gill,  M. Head-Gordon

 Contributors to earlier versions of Q-Chem not listed above: 
 R. D. Adamson,  B. Austin,  J. Baker,  G. J. O. Beran,  K. Brandhorst,  
 S. T. Brown,  E. F. C. Byrd,  A. K. Chakraborty,  C.-L. Cheng,  
 Siu Hung Chien,  D. M. Chipman,  D. L. Crittenden,  H. Dachsel,  
 R. A. DiStasio Jr.,  R. J. Doerksen,  A. D. Dutoi,  L. Fusti-Molnar,  
 W. A. Goddard III,  A. Golubeva-Zadorozhnaya,  S. R. Gwaltney,  G. Hawkins,  
 A. Heyden,  S. Hirata,  G. Kedziora,  F. J. Keil,  C. Kelley,  Jihan Kim,  
 R. A. King,  R. Z. Khaliullin,  P. P. Korambath,  W. Kurlancheek,  
 A. M. Lee,  M. S. Lee,  S. V. Levchenko,  Ching Yeh Lin,  D. Liotard,  
 R. C. Lochan,  I. Lotan,  P. E. Maslen,  N. Nair,  D. P. O'Neill,  
 D. Neuhauser,  E. Neuscamman,  C. M. Oana,  R. Olson,  B. Peters,  
 R. Peverati,  P. A. Pieniazek,  Y. M. Rhee,  J. Ritchie,  M. A. Rohrdanz,  
 E. Rosta,  N. J. Russ,  H. F. Schaefer III,  N. E. Schultz,  N. Shenvi,  
 A. C. Simmonett,  A. Sodt,  D. Stuck,  K. S. Thanthiriwatte,  V. Vanovschi,  
 Tao Wang,  A. Warshel,  C. F. Williams,  Q. Wu,  X. Xu,  W. Zhang

 Please cite Q-Chem as follows:
 Y. Shao et al., Mol. Phys. 113, 184-215 (2015)
 DOI: 10.1080/00268976.2014.952696

 Q-Chem 5.0.0 for Mac (Intel) OS X

 Parts of Q-Chem use Armadillo 5.200.1 (Boston Tea Smuggler).
 http://arma.sourceforge.net/

 Q-Chem begins on Tue Jan 29 19:23:23 2019  

meta.canterbury.ac.nz
Host: 0

     Scratch files written to /tmp/qchem36627//

Checking the input file for inconsistencies... 	...done.

--------------------------------------------------------------
User input:
--------------------------------------------------------------
$molecule
0 1
C	2.0399055616	-0.4878533007	1.2170768046
C	1.8606225690	0.2934100062	0.0635708296
C	0.6880071557	1.2149747056	-0.0554377175
C	-0.6867804502	0.8062935521	-0.0420077170
C	-1.1616257676	-0.5745723236	-0.1844765984
C	-0.3460045241	-1.6550619560	-0.6047533925
C	3.1725823192	-1.2842791859	1.3688316017
C	4.1517101744	-1.3133439818	0.3725454510
C	2.8568975485	0.2666440327	-0.9235882628
C	3.9908526791	-0.5341293454	-0.7727570682
C	1.0020618200	2.5729523932	-0.0751268637
C	-1.6731354800	1.8350484429	0.1060799428
C	-1.3031281248	3.1982030040	0.1013797037
C	0.0175012800	3.5694661309	-0.0224740427
C	-3.0556106580	1.4946862466	0.2870296920
C	-3.4679057965	0.2025933263	0.3027397839
C	-2.5454011191	-0.8622977435	0.0414508616
C	-3.0197662498	-2.1912489410	-0.0517733475
C	-2.1816939920	-3.2263135872	-0.4114979796
C	-0.8386345756	-2.9433924034	-0.7130540689
H	1.2809450601	-0.4683631635	1.9935131955
H	0.6845357447	-1.4782289726	-0.8720933805
H	3.2943105598	-1.8800178768	2.2690782388
H	5.0340237078	-1.9355071044	0.4911735168
H	2.7326502835	0.8674975244	-1.8200744735
H	4.7474355383	-0.5477724015	-1.5523637073
H	2.0497906555	2.8583118324	-0.0849316559
H	-2.0835248112	3.9479902070	0.2001931450
H	0.3024178720	4.6172132868	-0.0364035509
H	-3.7653163634	2.3048701638	0.4311733608
H	-4.5126871437	-0.0459486911	0.4684926592
H	-4.0721833719	-2.3775360922	0.1463774641
H	-2.5597008350	-4.2416663934	-0.4860555353
H	-0.1772775051	-3.7391700292	-1.0433355233
$end

$rem
 JOBTYPE opt
 EXCHANGE B3LYP
 CIS_N_ROOTS 4
 SYM_IGNORE TRUE
 CIS_SINGLETS TRUE
 cis_triplets false
 cis_state_deriv 1
 MAX_SCF_CYCLES 100
 GEOM_OPT_MAX_CYCLES 1
 SYMMETRY FALSE
 GEOM_OPT_PRINT 3
 xc_grid  000075000302
 MEM_STATIC 900
 MAX_SUB_FILE_NUM 16
 BASIS 6-31G(d,p)
$end
--------------------------------------------------------------
 ----------------------------------------------------------------
             Standard Nuclear Orientation (Angstroms)
    I     Atom           X                Y                Z
 ----------------------------------------------------------------
    1      C       2.0399055616    -0.4878533007     1.2170768046
    2      C       1.8606225690     0.2934100062     0.0635708296
    3      C       0.6880071557     1.2149747056    -0.0554377175
    4      C      -0.6867804502     0.8062935521    -0.0420077170
    5      C      -1.1616257676    -0.5745723236    -0.1844765984
    6      C      -0.3460045241    -1.6550619560    -0.6047533925
    7      C       3.1725823192    -1.2842791859     1.3688316017
    8      C       4.1517101744    -1.3133439818     0.3725454510
    9      C       2.8568975485     0.2666440327    -0.9235882628
   10      C       3.9908526791    -0.5341293454    -0.7727570682
   11      C       1.0020618200     2.5729523932    -0.0751268637
   12      C      -1.6731354800     1.8350484429     0.1060799428
   13      C      -1.3031281248     3.1982030040     0.1013797037
   14      C       0.0175012800     3.5694661309    -0.0224740427
   15      C      -3.0556106580     1.4946862466     0.2870296920
   16      C      -3.4679057965     0.2025933263     0.3027397839
   17      C      -2.5454011191    -0.8622977435     0.0414508616
   18      C      -3.0197662498    -2.1912489410    -0.0517733475
   19      C      -2.1816939920    -3.2263135872    -0.4114979796
   20      C      -0.8386345756    -2.9433924034    -0.7130540689
   21      H       1.2809450601    -0.4683631635     1.9935131955
   22      H       0.6845357447    -1.4782289726    -0.8720933805
   23      H       3.2943105598    -1.8800178768     2.2690782388
   24      H       5.0340237078    -1.9355071044     0.4911735168
   25      H       2.7326502835     0.8674975244    -1.8200744735
   26      H       4.7474355383    -0.5477724015    -1.5523637073
   27      H       2.0497906555     2.8583118324    -0.0849316559
   28      H      -2.0835248112     3.9479902070     0.2001931450
   29      H       0.3024178720     4.6172132868    -0.0364035509
   30      H      -3.7653163634     2.3048701638     0.4311733608
   31      H      -4.5126871437    -0.0459486911     0.4684926592
   32      H      -4.0721833719    -2.3775360922     0.1463774641
   33      H      -2.5597008350    -4.2416663934    -0.4860555353
   34      H      -0.1772775051    -3.7391700292    -1.0433355233
 ----------------------------------------------------------------
 Nuclear Repulsion Energy =  1373.1026100890 hartrees
 There are       67 alpha and       67 beta electrons
 Requested basis set is 6-31G(d,p)
 There are 122 shells and 370 basis functions

 Total QAlloc Memory Limit   2000 MB
 Mega-Array Size       880 MB
 MEM_STATIC part       900 MB
 A cutoff of  1.0D-11 yielded   4785 shell pairs
 There are     47762 function pairs
 Smallest overlap matrix eigenvalue = 2.03E-04

 Scale SEOQF with 1.000000e-01/1.000000e-01/1.000000e-01

 Standard Electronic Orientation quadrupole field applied
 Nucleus-field energy     =     0.0000000590 hartrees
 Guess from superposition of atomic densities
 Warning:  Energy on first SCF cycle will be non-variational
 A restricted hybrid HF-DFT SCF calculation will be
 performed using Pulay DIIS extrapolation
 Exchange:     0.2000 Hartree-Fock + 0.0800 Slater + 0.7200 B88
 Correlation:  0.1900 VWN1RPA + 0.8100 LYP
 Using Euler-Maclaurin-Lebedev (75,302) quadrature formula
 SCF converges when DIIS error is below 1.0E-08
 -------------------------------------------------------
 OpenMP Integral computing Module                
 -------------------------------------------------------
 ---------------------------------------
  Cycle       Energy         DIIS Error
 ---------------------------------------
    1    -775.5427374233      3.98E-02
    2    -770.3717503742      3.44E-03
    3    -770.4044441533      3.29E-03
    4    -770.5952185967      7.25E-04
    5    -770.6022186109      3.79E-04
    6    -770.6049726125      8.52E-05
    7    -770.6050789048      4.29E-05
    8    -770.6051131368      1.07E-05
    9    -770.6051151585      2.04E-06
   10    -770.6051152199      9.96E-07
   11    -770.6051152390      2.19E-07
   12    -770.6051152405      9.51E-08
   13    -770.6051152414      2.28E-08
   14    -770.6051152406      7.51E-09 Convergence criterion met
 ---------------------------------------
 SCF time:  CPU 554.39 s  wall 1156.80 s
 SCF   energy in the final basis set = -770.6051152406
 Total energy in the final basis set = -770.6051152406

 Direct TDDFT/TDA calculation will be performed
 Exchange:     0.2000 Hartree-Fock + 0.0800 Slater + 0.7200 B88
 Correlation:  0.1900 VWN1RPA + 0.8100 LYP
 Using Euler-Maclaurin-Lebedev (75,302) quadrature formula
 Singlet excitation energies requested
 CIS energy converged when residual is below 10e- 6
 ---------------------------------------------------
 Iter    Rts Conv    Rts Left    Ttl Dev     Max Dev
 ---------------------------------------------------
   1         0           4      0.002465    0.000891
   2         0           4      0.001104    0.000435
   3         0           4      0.000550    0.000302
   4         0           4      0.000245    0.000133
   5         0           4      0.000145    0.000078
   6         1           3      0.000083    0.000043
   7         1           3      0.000040    0.000022
   8         2           2      0.000017    0.000010
   9         2           2      0.000007    0.000004
  10         2           2      0.000004    0.000002
  11         4           0      0.000002    0.000001    Roots Converged
 ---------------------------------------------------

 ---------------------------------------------------
         TDDFT/TDA Excitation Energies              
 ---------------------------------------------------

 Excited state   1: excitation energy (eV) =    3.9090
    Total energy for state   1:   -770.461463248844
    Multiplicity: Singlet
    Trans. Mom.: -0.2002 X   0.0638 Y   0.0161 Z
    Strength   :     0.0042537177
    D( 66) --> V(  1) amplitude =  0.6179
    D( 67) --> V(  1) amplitude = -0.2219
    D( 67) --> V(  2) amplitude =  0.7203

 Excited state   2: excitation energy (eV) =    4.2642
    Total energy for state   2:   -770.448410167592
    Multiplicity: Singlet
    Trans. Mom.:  0.3424 X  -0.6484 Y   0.0041 Z
    Strength   :     0.0561725408
    D( 66) --> V(  1) amplitude =  0.2568
    D( 66) --> V(  2) amplitude = -0.4906
    D( 67) --> V(  1) amplitude =  0.7864

 Excited state   3: excitation energy (eV) =    4.6575
    Total energy for state   3:   -770.433955273278
    Multiplicity: Singlet
    Trans. Mom.:  1.6382 X   0.7008 Y   0.1825 Z
    Strength   :     0.3660607837
    D( 65) --> V(  1) amplitude = -0.3580
    D( 65) --> V(  2) amplitude =  0.2837
    D( 66) --> V(  1) amplitude =  0.6300
    D( 67) --> V(  2) amplitude = -0.5290

 Excited state   4: excitation energy (eV) =    4.7344
    Total energy for state   4:   -770.431129662322
    Multiplicity: Singlet
    Trans. Mom.:  0.2989 X  -0.9138 Y  -0.2016 Z
    Strength   :     0.1119365628
    D( 65) --> V(  2) amplitude = -0.3861
    D( 66) --> V(  2) amplitude =  0.7385
    D( 67) --> V(  1) amplitude =  0.3667

 ---------------------------------------------------
 Calculating Relaxed Density
 ---------------------------------------------------
 Iter    Rts Conv    Rts Left    Ttl Dev     Max Dev
 ---------------------------------------------------
   1         0           4      0.000674    0.000275
   2         0           4      0.000247    0.000098
   3         0           4      0.000066    0.000023
   4         0           4      0.000020    0.000008
   5         2           2      0.000004    0.000002
   6         4           0      0.000000    0.000000    Roots Converged
 ---------------------------------------------------
  SETman timing summary (seconds)
  CPU time              1655.80s
  System time              0.01s
  Wall time             2571.33s

 --------------------------------------------------------------

                    Orbital Energies (a.u.)
 --------------------------------------------------------------

 Alpha MOs
 -- Occupied --
-10.204 -10.201 -10.200 -10.198 -10.197 -10.195 -10.191 -10.190
-10.189 -10.189 -10.189 -10.188 -10.188 -10.188 -10.188 -10.188
-10.187 -10.186 -10.185 -10.182  -0.879  -0.856  -0.842  -0.805
 -0.778  -0.760  -0.743  -0.738  -0.717  -0.707  -0.632  -0.622
 -0.610  -0.602  -0.593  -0.568  -0.530  -0.524  -0.505  -0.488
 -0.475  -0.470  -0.452  -0.448  -0.433  -0.424  -0.420  -0.417
 -0.416  -0.404  -0.393  -0.387  -0.371  -0.364  -0.356  -0.354
 -0.343  -0.341  -0.326  -0.321  -0.308  -0.279  -0.264  -0.250
 -0.242  -0.217  -0.208
 -- Virtual --
 -0.038  -0.033  -0.005  -0.000   0.017   0.037   0.081   0.097
  0.099   0.108   0.126   0.140   0.147   0.149   0.158   0.160
  0.163   0.175   0.181   0.187   0.192   0.198   0.206   0.219
  0.243   0.254   0.259   0.286   0.296   0.300   0.305   0.307
  0.316   0.324   0.329   0.348   0.356   0.381   0.401   0.451
  0.465   0.473   0.491   0.504   0.511   0.520   0.528   0.536
  0.537   0.543   0.547   0.553   0.561   0.564   0.567   0.574
  0.576   0.582   0.587   0.592   0.597   0.598   0.602   0.606
  0.610   0.614   0.618   0.619   0.623   0.627   0.631   0.638
  0.648   0.658   0.662   0.668   0.682   0.693   0.708   0.718
  0.748   0.783   0.794   0.804   0.810   0.812   0.814   0.818
  0.821   0.824   0.825   0.834   0.840   0.850   0.853   0.866
  0.872   0.878   0.896   0.907   0.927   0.933   0.943   0.958
  0.964   0.976   0.983   1.003   1.009   1.024   1.035   1.051
  1.059   1.077   1.094   1.106   1.131   1.151   1.154   1.169
  1.176   1.189   1.199   1.212   1.226   1.242   1.258   1.270
  1.280   1.296   1.306   1.325   1.338   1.344   1.359   1.375
  1.384   1.393   1.404   1.408   1.413   1.415   1.418   1.421
  1.440   1.452   1.465   1.481   1.506   1.521   1.525   1.544
  1.628   1.688   1.697   1.713   1.745   1.763   1.780   1.788
  1.792   1.805   1.823   1.825   1.836   1.862   1.865   1.874
  1.885   1.891   1.896   1.904   1.913   1.915   1.924   1.929
  1.940   1.955   1.962   1.980   1.986   1.993   2.004   2.011
  2.013   2.026   2.039   2.041   2.059   2.077   2.083   2.093
  2.158   2.173   2.186   2.205   2.227   2.250   2.258   2.275
  2.285   2.295   2.300   2.311   2.327   2.337   2.345   2.356
  2.366   2.375   2.383   2.388   2.392   2.396   2.414   2.421
  2.430   2.438   2.451   2.455   2.466   2.484   2.485   2.500
  2.504   2.515   2.522   2.533   2.545   2.549   2.572   2.584
  2.595   2.597   2.604   2.608   2.625   2.628   2.639   2.646
  2.650   2.668   2.691   2.704   2.708   2.727   2.743   2.755
  2.769   2.782   2.796   2.808   2.833   2.861   2.910   2.959
  2.995   3.029   3.052   3.065   3.128   3.151   3.157   3.184
  3.210   3.236   3.238   3.247   3.250   3.258   3.295   3.324
  3.343   3.365   3.393   3.418   3.429   3.499   3.515   3.715
  3.789   3.874   3.903   4.094   4.126   4.146   4.149   4.155
  4.161   4.179   4.202   4.217   4.295   4.343   4.375   4.444
  4.465   4.491   4.516   4.597   4.755   4.836   4.965
 --------------------------------------------------------------

          Ground-State Mulliken Net Atomic Charges

     Atom                 Charge (a.u.)
  ----------------------------------------
      1 C                    -0.080507
      2 C                    -0.012964
      3 C                    -0.002781
      4 C                     0.036869
      5 C                     0.037844
      6 C                    -0.121281
      7 C                    -0.088063
      8 C                    -0.084514
      9 C                    -0.104752
     10 C                    -0.087507
     11 C                    -0.107737
     12 C                     0.095298
     13 C                    -0.134891
     14 C                    -0.089566
     15 C                    -0.132393
     16 C                    -0.128181
     17 C                     0.102899
     18 C                    -0.142560
     19 C                    -0.085254
     20 C                    -0.101471
     21 H                     0.094936
     22 H                     0.107301
     23 H                     0.087898
     24 H                     0.085376
     25 H                     0.088924
     26 H                     0.086736
     27 H                     0.090100
     28 H                     0.083752
     29 H                     0.087109
     30 H                     0.084038
     31 H                     0.083998
     32 H                     0.082021
     33 H                     0.084191
     34 H                     0.085131
  ----------------------------------------
  Sum of atomic charges =    -0.000000

 -----------------------------------------------------------------
                    Cartesian Multipole Moments
 -----------------------------------------------------------------
    Charge (ESU x 10^10)
                -0.0000
    Dipole Moment (Debye)
         X       0.2132      Y      -0.0290      Z       0.0935
       Tot       0.2347
    Quadrupole Moments (Debye-Ang)
        XX    -102.4936     XY      -2.1223     YY    -104.0776
        XZ      -3.0837     YZ      -0.7334     ZZ    -115.7105
    Octopole Moments (Debye-Ang^2)
       XXX      -9.2802    XXY     -14.1350    XYY      -8.5528
       YYY       8.1611    XXZ      -1.5014    XYZ      -7.6371
       YYZ      -1.7053    XZZ      16.1039    YZZ      -5.8377
       ZZZ       3.2254
    Hexadecapole Moments (Debye-Ang^3)
      XXXX   -3762.9210   XXXY     -35.2443   XXYY   -1031.0477
      XYYY      51.0727   YYYY   -2426.9287   XXXZ    -100.1096
      XXYZ     -33.3936   XYYZ      -3.2621   YYYZ     -17.7155
      XXZZ    -744.0394   XYZZ      -3.1399   YYZZ    -533.9647
      XZZZ     -29.0041   YZZZ     -61.1936   ZZZZ    -381.6170
 -----------------------------------------------------------------
 Calculating analytic gradient of the CIS energy
 CIS relaxed dipole moment
            1
    1  -0.0573175
    2  -0.0889136
    3   0.0379403
	Magnitude:	 0.112 au	 0.286 Debye
 CIS 1 State Energy is -770.4614632488
 Gradient of the state energy (including CIS Excitation Energy)
            1           2           3           4           5           6
    1   0.0004556   0.0078063  -0.0100926  -0.0002935  -0.0174034  -0.0080573
    2   0.0052781  -0.0065202   0.0136671   0.0299518  -0.0222470  -0.0055994
    3  -0.0020906  -0.0011491  -0.0007141  -0.0002244   0.0017159   0.0012180
            7           8           9          10          11          12
    1   0.0011749  -0.0012976  -0.0048857   0.0016541  -0.0041996   0.0270594
    2  -0.0003101   0.0013562  -0.0006179  -0.0021972  -0.0125501  -0.0151293
    3  -0.0005451  -0.0014080   0.0016104   0.0019345   0.0044397  -0.0050790
           13          14          15          16          17          18
    1   0.0161481  -0.0162029  -0.0230750   0.0013145   0.0265775   0.0084869
    2   0.0049929  -0.0072672  -0.0306389   0.0363758  -0.0025890  -0.0118570
    3  -0.0004345   0.0011032   0.0007928   0.0021645  -0.0040320  -0.0046328
           19          20          21          22          23          24
    1  -0.0088777   0.0042175  -0.0001925   0.0003991  -0.0000642   0.0001078
    2   0.0143168   0.0116918  -0.0002470  -0.0005072  -0.0001129  -0.0000057
    3   0.0044082   0.0005453   0.0000764   0.0004459  -0.0000471  -0.0000056
           25          26          27          28          29          30
    1   0.0000952   0.0002001   0.0002478  -0.0000427  -0.0001184  -0.0004317
    2  -0.0000433   0.0001153   0.0000837   0.0003712   0.0005229  -0.0000561
    3  -0.0001897   0.0000793   0.0004025   0.0003519  -0.0006576  -0.0001234
           31          32          33          34
    1  -0.0002786  -0.0003287  -0.0003102   0.0002074
    2   0.0003467  -0.0001624  -0.0003507  -0.0000617
    3   0.0004249  -0.0001612   0.0000668  -0.0002859
 Gradient time:  CPU 357.18 s  wall 699.71 s
 Geometry Optimization Parameters
   NAtoms,    NIC,     NZ,  NCons,   NDum,   NFix, NCnnct, MaxDiis
       34     257       0       0       0       0       0       0


** GEOMETRY OPTIMIZATION IN DELOCALIZED INTERNAL COORDINATES **
   Searching for a Minimum

   Optimization Cycle:   1

                       Coordinates (Angstroms)
     ATOM                X               Y               Z
      1  C         2.0399055616   -0.4878533007    1.2170768046
      2  C         1.8606225690    0.2934100062    0.0635708296
      3  C         0.6880071557    1.2149747056   -0.0554377175
      4  C        -0.6867804502    0.8062935521   -0.0420077170
      5  C        -1.1616257676   -0.5745723236   -0.1844765984
      6  C        -0.3460045241   -1.6550619560   -0.6047533925
      7  C         3.1725823192   -1.2842791859    1.3688316017
      8  C         4.1517101744   -1.3133439818    0.3725454510
      9  C         2.8568975485    0.2666440327   -0.9235882628
     10  C         3.9908526791   -0.5341293454   -0.7727570682
     11  C         1.0020618200    2.5729523932   -0.0751268637
     12  C        -1.6731354800    1.8350484429    0.1060799428
     13  C        -1.3031281248    3.1982030040    0.1013797037
     14  C         0.0175012800    3.5694661309   -0.0224740427
     15  C        -3.0556106580    1.4946862466    0.2870296920
     16  C        -3.4679057965    0.2025933263    0.3027397839
     17  C        -2.5454011191   -0.8622977435    0.0414508616
     18  C        -3.0197662498   -2.1912489410   -0.0517733475
     19  C        -2.1816939920   -3.2263135872   -0.4114979796
     20  C        -0.8386345756   -2.9433924034   -0.7130540689
     21  H         1.2809450601   -0.4683631635    1.9935131955
     22  H         0.6845357447   -1.4782289726   -0.8720933805
     23  H         3.2943105598   -1.8800178768    2.2690782388
     24  H         5.0340237078   -1.9355071044    0.4911735168
     25  H         2.7326502835    0.8674975244   -1.8200744735
     26  H         4.7474355383   -0.5477724015   -1.5523637073
     27  H         2.0497906555    2.8583118324   -0.0849316559
     28  H        -2.0835248112    3.9479902070    0.2001931450
     29  H         0.3024178720    4.6172132868   -0.0364035509
     30  H        -3.7653163634    2.3048701638    0.4311733608
     31  H        -4.5126871437   -0.0459486911    0.4684926592
     32  H        -4.0721833719   -2.3775360922    0.1463774641
     33  H        -2.5597008350   -4.2416663934   -0.4860555353
     34  H        -0.1772775051   -3.7391700292   -1.0433355233
   Point Group: c1    Number of degrees of freedom:    96


   Energy is   -770.461463249


                       Cartesian Gradient (au)
     ATOM              X           Y           Z
    1  C           0.000456    0.005278   -0.002091
    2  C           0.007806   -0.006520   -0.001149
    3  C          -0.010093    0.013667   -0.000714
    4  C          -0.000293    0.029952   -0.000224
    5  C          -0.017403   -0.022247    0.001716
    6  C          -0.008057   -0.005599    0.001218
    7  C           0.001175   -0.000310   -0.000545
    8  C          -0.001298    0.001356   -0.001408
    9  C          -0.004886   -0.000618    0.001610
   10  C           0.001654   -0.002197    0.001934
   11  C          -0.004200   -0.012550    0.004440
   12  C           0.027059   -0.015129   -0.005079
   13  C           0.016148    0.004993   -0.000434
   14  C          -0.016203   -0.007267    0.001103
   15  C          -0.023075   -0.030639    0.000793
   16  C           0.001314    0.036376    0.002164
   17  C           0.026578   -0.002589   -0.004032
   18  C           0.008487   -0.011857   -0.004633
   19  C          -0.008878    0.014317    0.004408
   20  C           0.004218    0.011692    0.000545
   21  H          -0.000192   -0.000247    0.000076
   22  H           0.000399   -0.000507    0.000446
   23  H          -0.000064   -0.000113   -0.000047
   24  H           0.000108   -0.000006   -0.000006
   25  H           0.000095   -0.000043   -0.000190
   26  H           0.000200    0.000115    0.000079
   27  H           0.000248    0.000084    0.000402
   28  H          -0.000043    0.000371    0.000352
   29  H          -0.000118    0.000523   -0.000658
   30  H          -0.000432   -0.000056   -0.000123
   31  H          -0.000279    0.000347    0.000425
   32  H          -0.000329   -0.000162   -0.000161
   33  H          -0.000310   -0.000351    0.000067
   34  H           0.000207   -0.000062   -0.000286

 Attempting to Generate Delocalized Internal Coordinates
 There are    189 Primitive Internals

 There are     93 Redundant primitive internals
 Setting Up Default Hessian

 96 Hessian modes will be used to form the next step
  Hessian Eigenvalues:
     0.009688    0.016373    0.017113    0.017348    0.017844    0.018277
     0.018628    0.018923    0.019279    0.021183    0.021816    0.022031
     0.022050    0.022246    0.022444    0.022452    0.022575    0.022643
     0.022667    0.022816    0.022905    0.022921    0.023004    0.023022
     0.023119    0.023159    0.023361    0.023399    0.023977    0.024119
     0.024535    0.159772    0.159815    0.159878    0.159930    0.159957
     0.159967    0.159972    0.159983    0.159995    0.159997    0.159999
     0.159999    0.160000    0.160000    0.219964    0.219993    0.219999
     0.220859    0.223870    0.226583    0.234168    0.234470    0.242693
     0.245974    0.247596    0.248575    0.249029    0.249185    0.327844
     0.348994    0.351627    0.351943    0.352000    0.352023    0.352252
     0.352373    0.352382    0.352603    0.352660    0.352794    0.352863
     0.352867    0.352926    0.357591    0.360866    0.380067    0.390523
     0.398658    0.401053    0.404882    0.416297    0.417923    0.421318
     0.424559    0.440208    0.443471    0.453211    0.457118    0.458096
     0.463181    0.466231    0.471386    0.484256    0.485215    0.521126

 Minimum Search - Taking Simple RFO Step
 Searching for Lamda that Minimizes Along All modes
 Value Taken    Lamda =  -0.00904509
 Calculated Step too Large.  Step scaled by  0.929749
 Step Taken.  Stepsize is  0.300000


     Parameter Values and Displacements in Internal Coordinates
  Coordinate  Current Value    Gradient  Displacement   New Value
       1           0.720706     0.001997    -0.009548     0.711158
       2           4.403000    -0.000220    -0.011451     4.391549
       3           2.428573    -0.002711     0.137933     2.566506
       4           4.596075     0.000732    -0.053298     4.542777
       5           0.213897    -0.002031     0.122770     0.336667
       6          -6.220038    -0.000406     0.079141    -6.140897
       7           7.193281    -0.015441     0.044313     7.237594
       8          -0.482541    -0.000944    -0.020009    -0.502550
       9          -2.710999    -0.001159    -0.053973    -2.764971
      10           6.706120    -0.005872     0.042416     6.748537
      11           0.242531     0.001714    -0.009387     0.233144
      12           3.446961    -0.003549     0.029758     3.476719
      13           1.812361     0.000276    -0.012147     1.800214
      14           0.027487     0.000443     0.006810     0.034297
      15          -1.138505     0.000469    -0.041634    -1.180139
      16           3.476813    -0.006600    -0.002843     3.473969
      17           4.960063    -0.008462     0.014027     4.974091
      18          -0.369468     0.001583    -0.003573    -0.373041
      19           2.799049    -0.003453     0.011146     2.810195
      20          -0.839890    -0.007198     0.018437    -0.821453
      21           3.741957    -0.012280     0.018689     3.760647
      22           0.734098    -0.007072     0.015160     0.749258
      23           0.347723    -0.002783    -0.022350     0.325373
      24           5.761123    -0.000989     0.003156     5.764279
      25          -2.420929     0.010427    -0.018068    -2.438997
      26          -0.191581     0.000229     0.014696    -0.176885
      27           1.687425    -0.007723     0.024574     1.711999
      28          -0.165533    -0.000914     0.037613    -0.127920
      29           0.030100    -0.006253     0.017278     0.047378
      30           0.809138     0.002196    -0.005151     0.803987
      31           1.856359    -0.002139     0.000694     1.857053
      32           0.642168    -0.001768     0.025430     0.667598
      33           0.349638     0.002852    -0.011816     0.337822
      34           2.179666     0.000367    -0.043239     2.136428
      35          -0.866852    -0.000910     0.010722    -0.856130
      36          -1.273523    -0.001605     0.010955    -1.262568
      37          -1.957111    -0.006341     0.014498    -1.942613
      38          -0.817249     0.000292     0.021695    -0.795554
      39          -2.619226     0.003466    -0.030490    -2.649716
      40          -0.140840    -0.002630     0.022855    -0.117985
      41          -0.009805     0.000472    -0.014852    -0.024657
      42           0.974506     0.000419     0.001584     0.976091
      43          -1.664587    -0.000909    -0.020092    -1.684679
      44           1.863293     0.000032     0.030073     1.893367
      45           1.211102     0.000721    -0.001901     1.209202
      46          -0.513814    -0.001991     0.012453    -0.501361
      47           1.713877    -0.004083     0.008533     1.722410
      48          -1.221508    -0.003616     0.008975    -1.212533
      49           0.845563     0.001608    -0.000995     0.844568
      50          -0.235027     0.002235    -0.002182    -0.237209
      51           1.887428    -0.000096    -0.009918     1.877510
      52          -0.245605    -0.001409     0.001173    -0.244433
      53           1.016115     0.003877    -0.013116     1.002998
      54          -0.564772    -0.000132     0.010729    -0.554043
      55           0.048061     0.001933    -0.008055     0.040005
      56           0.654299     0.000144    -0.000353     0.653946
      57           0.047764     0.002184    -0.006258     0.041507
      58          -0.852735     0.002221    -0.032804    -0.885539
      59           0.520393    -0.004079     0.013400     0.533793
      60           0.867709     0.018629    -0.040176     0.827533
      61          -0.714128     0.005587     0.009071    -0.705057
      62          -0.273821    -0.014894     0.034660    -0.239161
      63          -0.096534    -0.000178    -0.001304    -0.097838
      64          -0.003561    -0.035123     0.064379     0.060818
      65           0.146500     0.006712    -0.015010     0.131490
      66           0.101838    -0.005945     0.015684     0.117522
      67          -0.137136    -0.002583     0.011823    -0.125312
      68          -0.167561     0.001333    -0.000798    -0.168359
      69          -0.073808     0.008769    -0.018678    -0.092486
      70           0.303113    -0.011005     0.024695     0.327808
      71           0.197790     0.001727    -0.009832     0.187958
      72          -0.630961     0.003345     0.006430    -0.624530
      73           0.721788     0.007348    -0.033845     0.687944
      74           0.158401    -0.001785    -0.001355     0.157046
      75          -1.889353    -0.000983     0.045827    -1.843526
      76           1.021604     0.004137    -0.048937     0.972667
      77          -0.118340    -0.006955     0.001193    -0.117147
      78          -0.002066     0.002201    -0.000019    -0.002085
      79           0.141865     0.002775    -0.034176     0.107689
      80           0.196302     0.000963    -0.028525     0.167777
      81          -0.017954     0.000203     0.023027     0.005073
      82          -0.123212    -0.000290    -0.003892    -0.127104
      83          -0.200153     0.005790    -0.004690    -0.204843
      84          -0.838225    -0.000287     0.002697    -0.835528
      85          -0.377255     0.001979    -0.006771    -0.384026
      86           0.555038     0.001948    -0.009370     0.545669
      87          -1.668252     0.000105     0.015351    -1.652901
      88          -0.039774    -0.000230     0.001405    -0.038369
      89          -0.698957    -0.000553     0.035022    -0.663935
      90          -1.445723     0.000836    -0.032930    -1.478653
      91          -2.541586    -0.000443     0.009175    -2.532411
      92          -1.964834    -0.001466     0.053416    -1.911418
      93          -0.318437     0.000090    -0.004851    -0.323288
      94          -0.115656    -0.000500     0.017137    -0.098518
      95          -0.347497     0.000006    -0.002374    -0.349871
      96          -0.501841    -0.000173     0.020671    -0.481169

                             Maximum     Tolerance    Cnvgd?
         Gradient           0.035123      0.000300      NO
         Displacement       0.137933      0.001200      NO
         Energy change     *********      0.000001      NO


 New Cartesian Coordinates Obtained by Inverse Iteration
     Cycle:   1  Maximum deviation:   0.13793265
     Cycle:   2  Maximum deviation:   0.02139556
     Cycle:   3  Maximum deviation:   0.00003177
     Cycle:   4  Maximum deviation:   0.00000000

 Displacement from previous Coordinates is:  1.080717
 ----------------------------------------------------------------
             Standard Nuclear Orientation (Angstroms)
    I     Atom           X                Y                Z
 ----------------------------------------------------------------
    1      C       1.9638297608    -0.5694933910     1.1483376303
    2      C       1.8598290083     0.3022700476     0.0462834922
    3      C       0.6958007996     1.2184913949    -0.0900002324
    4      C      -0.6872751629     0.8035375440    -0.0575470083
    5      C      -1.1573281560    -0.5635001552    -0.1963894874
    6      C      -0.3464271151    -1.6502298831    -0.6361000053
    7      C       3.0893045953    -1.3715354465     1.3176447028
    8      C       4.1351067860    -1.3238899613     0.3907731585
    9      C       2.9237068687     0.3490493584    -0.8722550406
   10      C       4.0468547254    -0.4607390037    -0.7043703242
   11      C       1.0101123461     2.5904049364    -0.1482596395
   12      C      -1.6825026111     1.8534985110     0.1088828545
   13      C      -1.3091309521     3.2156822757     0.0739420545
   14      C       0.0255747826     3.5893835050    -0.0871556284
   15      C      -3.0418505719     1.5091644995     0.3264803378
   16      C      -3.4590997714     0.1888681529     0.3512308397
   17      C      -2.5517314483    -0.8666655484     0.0706078029
   18      C      -3.0136847085    -2.2023801670     0.0058559231
   19      C      -2.1686285431    -3.2479461249    -0.3705376207
   20      C      -0.8373810092    -2.9555255771    -0.7147485011
   21      H       1.1540668900    -0.6087189523     1.8704540182
   22      H       0.6732133897    -1.4676670386    -0.9381167279
   23      H       3.1541109530    -2.0322048129     2.1775496390
   24      H       5.0106655152    -1.9527625768     0.5222619733
   25      H       2.8566267312     1.0143553398    -1.7282092157
   26      H       4.8530806320    -0.4181308535    -1.4312384773
   27      H       2.0569195983     2.8759534489    -0.1823775449
   28      H      -2.0867009518     3.9669171711     0.1790470986
   29      H       0.3117842757     4.6357759331    -0.1167023229
   30      H      -3.7494258433     2.3177067428     0.4870896697
   31      H      -4.4982168860    -0.0634930317     0.5425734043
   32      H      -4.0570510490    -2.3954400664     0.2397994859
   33      H      -2.5383601017    -4.2671439912    -0.4219982086
   34      H      -0.1799190154    -3.7501409177    -1.0543067341
 ----------------------------------------------------------------
 Nuclear Repulsion Energy =  1370.7023561721 hartrees
 There are       67 alpha and       67 beta electrons


 *******************************************
 **  MAXIMUM OPTIMIZATION CYCLES REACHED  **
 *******************************************

 Q-Chem fatal error occurred in module 0, line  456:

 Maximum optimization cycles reached

